/*--------------------------------*- C++ -*----------------------------------*\
| =========                 |                                                 |
| \\      /  F ield         | OpenFOAM: The Open Source CFD Toolbox           |
|  \\    /   O peration     | Version:  2312                                  |
|   \\  /    A nd           | Website:  www.openfoam.com                      |
|    \\/     M anipulation  |                                                 |
\*---------------------------------------------------------------------------*/
FoamFile
{
    version     2.0;
    format      ascii;
    arch        "LSB;label=32;scalar=64";
    class       volScalarField;
    location    "0";
    object      V;
}
// * * * * * * * * * * * * * * * * * * * * * * * * * * * * * * * * * * * * * //

dimensions      [0 3 0 0 0 0 0];

internalField   nonuniform List<scalar> 
307328
(
4.97982e-14
5.07246e-14
5.15296e-14
5.22095e-14
5.27612e-14
5.31819e-14
5.34693e-14
5.36216e-14
5.36375e-14
5.3516e-14
5.32568e-14
5.28598e-14
5.23257e-14
5.16553e-14
5.07246e-14
5.15815e-14
5.23161e-14
5.29253e-14
5.3406e-14
5.37558e-14
5.39728e-14
5.40555e-14
5.40029e-14
5.38143e-14
5.34898e-14
5.30297e-14
5.24351e-14
5.17071e-14
5.15296e-14
5.23161e-14
5.298e-14
5.35182e-14
5.39282e-14
5.42077e-14
5.43552e-14
5.43695e-14
5.42499e-14
5.39963e-14
5.36089e-14
5.30886e-14
5.24366e-14
5.16547e-14
5.22095e-14
5.29253e-14
5.35182e-14
5.39857e-14
5.43253e-14
5.45354e-14
5.46146e-14
5.45621e-14
5.43777e-14
5.40614e-14
5.36139e-14
5.30365e-14
5.23308e-14
5.1499e-14
5.27612e-14
5.3406e-14
5.39282e-14
5.43253e-14
5.45956e-14
5.47374e-14
5.47499e-14
5.46326e-14
5.43855e-14
5.40093e-14
5.35049e-14
5.2874e-14
5.21185e-14
5.12411e-14
5.31819e-14
5.37558e-14
5.42077e-14
5.45354e-14
5.47374e-14
5.48125e-14
5.47603e-14
5.45805e-14
5.42736e-14
5.38405e-14
5.32828e-14
5.26022e-14
5.18012e-14
5.08828e-14
5.34693e-14
5.39728e-14
5.43552e-14
5.46146e-14
5.47499e-14
5.47603e-14
5.46455e-14
5.44059e-14
5.40423e-14
5.35559e-14
5.29486e-14
5.22226e-14
5.13807e-14
5.04262e-14
5.36216e-14
5.40555e-14
5.43695e-14
5.45621e-14
5.46326e-14
5.45805e-14
5.44059e-14
5.41096e-14
5.36927e-14
5.31568e-14
5.25041e-14
5.17373e-14
5.08593e-14
4.9874e-14
5.36375e-14
5.40029e-14
5.42499e-14
5.43777e-14
5.43855e-14
5.42736e-14
5.40423e-14
5.36927e-14
5.32263e-14
5.26451e-14
5.19515e-14
5.11486e-14
5.02398e-14
4.9229e-14
5.3516e-14
5.38143e-14
5.39963e-14
5.40614e-14
5.40093e-14
5.38405e-14
5.35559e-14
5.31568e-14
5.26451e-14
5.2023e-14
5.12934e-14
5.04596e-14
4.95254e-14
4.84948e-14
5.32568e-14
5.34898e-14
5.36089e-14
5.36139e-14
5.35049e-14
5.32828e-14
5.29486e-14
5.25041e-14
5.19515e-14
5.12934e-14
5.0533e-14
4.96737e-14
4.87196e-14
4.7675e-14
5.28598e-14
5.30297e-14
5.30886e-14
5.30365e-14
5.2874e-14
5.26022e-14
5.22226e-14
5.17373e-14
5.11486e-14
5.04596e-14
4.96737e-14
4.87946e-14
4.78265e-14
4.6774e-14
5.23257e-14
5.24351e-14
5.24366e-14
5.23308e-14
5.21185e-14
5.18012e-14
5.13807e-14
5.08593e-14
5.02398e-14
4.95254e-14
4.87196e-14
4.78265e-14
4.68504e-14
4.57963e-14
5.16553e-14
5.17071e-14
5.16547e-14
5.1499e-14
5.12411e-14
5.08828e-14
5.04262e-14
4.9874e-14
4.9229e-14
4.84948e-14
4.7675e-14
4.6774e-14
4.57963e-14
4.47466e-14
4.74763e-14
4.83454e-14
4.90968e-14
4.97274e-14
5.02345e-14
5.06159e-14
5.08697e-14
5.09945e-14
5.09893e-14
5.08535e-14
5.05872e-14
5.01904e-14
4.96641e-14
4.90094e-14
4.83454e-14
4.91453e-14
4.98269e-14
5.03873e-14
5.08242e-14
5.11355e-14
5.13197e-14
5.13757e-14
5.13029e-14
5.1101e-14
5.07703e-14
5.03113e-14
4.97253e-14
4.90138e-14
4.90968e-14
4.98269e-14
5.04383e-14
5.09285e-14
5.12953e-14
5.15371e-14
5.16526e-14
5.16411e-14
5.15023e-14
5.12362e-14
5.08434e-14
5.0325e-14
4.96825e-14
4.89177e-14
4.97274e-14
5.03873e-14
5.09285e-14
5.13487e-14
5.1646e-14
5.18191e-14
5.18672e-14
5.17897e-14
5.15868e-14
5.12588e-14
5.08067e-14
5.02319e-14
4.95363e-14
4.87221e-14
5.02345e-14
5.08242e-14
5.12953e-14
5.1646e-14
5.18747e-14
5.19804e-14
5.19626e-14
5.18211e-14
5.15563e-14
5.11691e-14
5.06608e-14
5.00331e-14
4.92881e-14
4.84286e-14
5.06159e-14
5.11355e-14
5.15371e-14
5.18191e-14
5.19804e-14
5.20202e-14
5.19384e-14
5.17352e-14
5.14113e-14
5.09679e-14
5.04067e-14
4.97298e-14
4.89397e-14
4.80394e-14
5.08697e-14
5.13197e-14
5.16526e-14
5.18672e-14
5.19626e-14
5.19384e-14
5.17949e-14
5.15326e-14
5.11525e-14
5.06564e-14
5.0046e-14
4.9324e-14
4.84931e-14
4.75568e-14
5.09945e-14
5.13757e-14
5.16411e-14
5.17897e-14
5.18211e-14
5.17352e-14
5.15326e-14
5.12141e-14
5.07813e-14
5.02361e-14
4.95806e-14
4.88179e-14
4.7951e-14
4.69837e-14
5.09893e-14
5.13029e-14
5.15023e-14
5.15868e-14
5.15563e-14
5.14113e-14
5.11525e-14
5.07813e-14
5.02994e-14
4.97091e-14
4.9013e-14
4.82143e-14
4.73164e-14
4.63233e-14
5.08535e-14
5.1101e-14
5.12362e-14
5.12588e-14
5.11691e-14
5.09679e-14
5.06564e-14
5.02361e-14
4.97091e-14
4.90781e-14
4.8346e-14
4.75162e-14
4.65925e-14
4.55792e-14
5.05872e-14
5.07703e-14
5.08434e-14
5.08067e-14
5.06608e-14
5.04067e-14
5.0046e-14
4.95806e-14
4.9013e-14
4.8346e-14
4.75829e-14
4.67273e-14
4.57833e-14
4.47554e-14
5.01904e-14
5.03113e-14
5.0325e-14
5.02319e-14
5.00331e-14
4.97298e-14
4.9324e-14
4.88179e-14
4.82143e-14
4.75162e-14
4.67273e-14
4.58514e-14
4.48928e-14
4.38563e-14
4.96641e-14
4.97253e-14
4.96825e-14
4.95363e-14
4.92881e-14
4.89397e-14
4.84931e-14
4.7951e-14
4.73164e-14
4.65925e-14
4.57833e-14
4.48928e-14
4.39256e-14
4.28863e-14
4.90094e-14
4.90138e-14
4.89177e-14
4.87221e-14
4.84286e-14
4.80394e-14
4.75568e-14
4.69837e-14
4.63233e-14
4.55792e-14
4.47554e-14
4.38563e-14
4.28863e-14
4.18506e-14
4.52099e-14
4.60233e-14
4.67227e-14
4.73054e-14
4.77692e-14
4.81124e-14
4.83335e-14
4.84315e-14
4.84058e-14
4.82561e-14
4.79826e-14
4.7586e-14
4.70671e-14
4.64273e-14
4.60233e-14
4.67681e-14
4.73983e-14
4.79115e-14
4.83059e-14
4.85799e-14
4.87323e-14
4.87624e-14
4.867e-14
4.84551e-14
4.81182e-14
4.76602e-14
4.70825e-14
4.63867e-14
4.67227e-14
4.73983e-14
4.7959e-14
4.84028e-14
4.87279e-14
4.89333e-14
4.90179e-14
4.89814e-14
4.88238e-14
4.85456e-14
4.81475e-14
4.76308e-14
4.69972e-14
4.62488e-14
4.73054e-14
4.79115e-14
4.84028e-14
4.87774e-14
4.90339e-14
4.91714e-14
4.91895e-14
4.90879e-14
4.88671e-14
4.85277e-14
4.80711e-14
4.74987e-14
4.68126e-14
4.60151e-14
4.77692e-14
4.83059e-14
4.87279e-14
4.90339e-14
4.92226e-14
4.92936e-14
4.92466e-14
4.90818e-14
4.88e-14
4.84022e-14
4.78899e-14
4.72651e-14
4.653e-14
4.56876e-14
4.81124e-14
4.85799e-14
4.89333e-14
4.91714e-14
4.92936e-14
4.92995e-14
4.91894e-14
4.89636e-14
4.86233e-14
4.81699e-14
4.76053e-14
4.69316e-14
4.61517e-14
4.52685e-14
4.83335e-14
4.87323e-14
4.90179e-14
4.91895e-14
4.92466e-14
4.91894e-14
4.90182e-14
4.8734e-14
4.83382e-14
4.78325e-14
4.72191e-14
4.65005e-14
4.56799e-14
4.47606e-14
4.84315e-14
4.87624e-14
4.89814e-14
4.90879e-14
4.90818e-14
4.89636e-14
4.8734e-14
4.83943e-14
4.79462e-14
4.73917e-14
4.67335e-14
4.59743e-14
4.51176e-14
4.4167e-14
4.84058e-14
4.867e-14
4.88238e-14
4.88671e-14
4.88e-14
4.86233e-14
4.83382e-14
4.79462e-14
4.74493e-14
4.685e-14
4.61511e-14
4.53559e-14
4.44678e-14
4.34911e-14
4.82561e-14
4.84551e-14
4.85456e-14
4.85277e-14
4.84022e-14
4.81699e-14
4.78325e-14
4.73917e-14
4.685e-14
4.62101e-14
4.54751e-14
4.46485e-14
4.37343e-14
4.27366e-14
4.79826e-14
4.81182e-14
4.81475e-14
4.80711e-14
4.78899e-14
4.76053e-14
4.72191e-14
4.67335e-14
4.61511e-14
4.54751e-14
4.47088e-14
4.3856e-14
4.29208e-14
4.19077e-14
4.7586e-14
4.76602e-14
4.76308e-14
4.74987e-14
4.72651e-14
4.69316e-14
4.65005e-14
4.59743e-14
4.53559e-14
4.46485e-14
4.3856e-14
4.29822e-14
4.20316e-14
4.10089e-14
4.70671e-14
4.70825e-14
4.69972e-14
4.68126e-14
4.653e-14
4.61517e-14
4.56799e-14
4.51176e-14
4.44678e-14
4.37343e-14
4.29208e-14
4.20316e-14
4.10713e-14
4.00447e-14
4.64273e-14
4.63867e-14
4.62488e-14
4.60151e-14
4.56876e-14
4.52685e-14
4.47606e-14
4.4167e-14
4.34911e-14
4.27366e-14
4.19077e-14
4.10089e-14
4.00447e-14
3.90203e-14
4.29989e-14
4.37583e-14
4.44072e-14
4.49434e-14
4.53653e-14
4.56714e-14
4.58608e-14
4.59327e-14
4.5887e-14
4.57237e-14
4.54432e-14
4.50464e-14
4.45345e-14
4.3909e-14
4.37583e-14
4.44498e-14
4.50302e-14
4.54978e-14
4.58511e-14
4.60889e-14
4.62105e-14
4.62156e-14
4.61042e-14
4.58766e-14
4.55336e-14
4.50764e-14
4.45064e-14
4.38256e-14
4.44072e-14
4.50302e-14
4.5542e-14
4.5941e-14
4.6226e-14
4.63961e-14
4.64509e-14
4.63903e-14
4.62146e-14
4.59246e-14
4.55213e-14
4.50061e-14
4.4381e-14
4.3648e-14
4.49434e-14
4.54978e-14
4.5941e-14
4.62717e-14
4.6489e-14
4.65923e-14
4.65814e-14
4.64566e-14
4.62185e-14
4.58682e-14
4.5407e-14
4.48368e-14
4.41596e-14
4.33781e-14
4.53653e-14
4.58511e-14
4.6226e-14
4.6489e-14
4.66394e-14
4.6677e-14
4.6602e-14
4.64148e-14
4.61165e-14
4.57084e-14
4.51922e-14
4.457e-14
4.38443e-14
4.30179e-14
4.56714e-14
4.60889e-14
4.63961e-14
4.65923e-14
4.6677e-14
4.66505e-14
4.65131e-14
4.62657e-14
4.59096e-14
4.54465e-14
4.48784e-14
4.42077e-14
4.34373e-14
4.25702e-14
4.58608e-14
4.62105e-14
4.64509e-14
4.65814e-14
4.6602e-14
4.65131e-14
4.63154e-14
4.60103e-14
4.55992e-14
4.50843e-14
4.44677e-14
4.37523e-14
4.29412e-14
4.20377e-14
4.59327e-14
4.62156e-14
4.63903e-14
4.64566e-14
4.64148e-14
4.62657e-14
4.60103e-14
4.56502e-14
4.51873e-14
4.46238e-14
4.39626e-14
4.32065e-14
4.2359e-14
4.14239e-14
4.5887e-14
4.61042e-14
4.62146e-14
4.62185e-14
4.61165e-14
4.59096e-14
4.55992e-14
4.51873e-14
4.46759e-14
4.40678e-14
4.33658e-14
4.25734e-14
4.16943e-14
4.07323e-14
4.57237e-14
4.58766e-14
4.59246e-14
4.58682e-14
4.57084e-14
4.54465e-14
4.50843e-14
4.46238e-14
4.40678e-14
4.3419e-14
4.26807e-14
4.18566e-14
4.09506e-14
3.99669e-14
4.54432e-14
4.55336e-14
4.55213e-14
4.5407e-14
4.51922e-14
4.48784e-14
4.44677e-14
4.39626e-14
4.33658e-14
4.26807e-14
4.19107e-14
4.10597e-14
4.0132e-14
3.91319e-14
4.50464e-14
4.50764e-14
4.50061e-14
4.48368e-14
4.457e-14
4.42077e-14
4.37523e-14
4.32065e-14
4.25734e-14
4.18566e-14
4.10597e-14
4.0187e-14
3.92428e-14
3.82318e-14
4.45345e-14
4.45064e-14
4.4381e-14
4.41596e-14
4.38443e-14
4.34373e-14
4.29412e-14
4.2359e-14
4.16943e-14
4.09506e-14
4.0132e-14
3.92428e-14
3.82877e-14
3.72714e-14
4.3909e-14
4.38256e-14
4.3648e-14
4.33781e-14
4.30179e-14
4.25702e-14
4.20377e-14
4.14239e-14
4.07323e-14
3.99669e-14
3.91319e-14
3.82318e-14
3.72714e-14
3.62557e-14
4.08434e-14
4.15504e-14
4.21504e-14
4.26416e-14
4.30228e-14
4.3293e-14
4.34515e-14
4.34982e-14
4.34329e-14
4.32563e-14
4.29689e-14
4.25718e-14
4.20664e-14
4.14544e-14
4.15504e-14
4.21903e-14
4.27227e-14
4.31462e-14
4.34598e-14
4.36627e-14
4.37545e-14
4.37353e-14
4.36054e-14
4.33655e-14
4.30165e-14
4.25599e-14
4.19972e-14
4.13306e-14
4.21504e-14
4.27227e-14
4.31874e-14
4.35433e-14
4.37895e-14
4.39257e-14
4.39517e-14
4.38678e-14
4.36746e-14
4.33731e-14
4.29647e-14
4.24508e-14
4.18337e-14
4.11154e-14
4.26416e-14
4.31462e-14
4.35433e-14
4.38318e-14
4.40113e-14
4.40817e-14
4.4043e-14
4.38958e-14
4.36411e-14
4.32802e-14
4.28146e-14
4.22462e-14
4.15775e-14
4.0811e-14
4.30228e-14
4.34598e-14
4.37895e-14
4.40113e-14
4.4125e-14
4.41306e-14
4.40287e-14
4.382e-14
4.35059e-14
4.30878e-14
4.25677e-14
4.19479e-14
4.12309e-14
4.04197e-14
4.3293e-14
4.36627e-14
4.39257e-14
4.40817e-14
4.41306e-14
4.4073e-14
4.39095e-14
4.36414e-14
4.32702e-14
4.27976e-14
4.22261e-14
4.1558e-14
4.07964e-14
3.99443e-14
4.34515e-14
4.37545e-14
4.39517e-14
4.4043e-14
4.40287e-14
4.39095e-14
4.36866e-14
4.33614e-14
4.29357e-14
4.24117e-14
4.17919e-14
4.10792e-14
4.02768e-14
3.93881e-14
4.34982e-14
4.37353e-14
4.38678e-14
4.38958e-14
4.382e-14
4.36414e-14
4.33614e-14
4.29818e-14
4.25046e-14
4.19324e-14
4.1268e-14
4.05145e-14
3.96754e-14
3.87545e-14
4.34329e-14
4.36054e-14
4.36746e-14
4.36411e-14
4.35059e-14
4.32702e-14
4.29357e-14
4.25046e-14
4.19792e-14
4.13624e-14
4.06571e-14
3.9867e-14
3.89956e-14
3.80471e-14
4.32563e-14
4.33655e-14
4.33731e-14
4.32802e-14
4.30878e-14
4.27976e-14
4.24117e-14
4.19324e-14
4.13624e-14
4.07047e-14
3.99628e-14
3.91404e-14
3.82415e-14
3.72702e-14
4.29689e-14
4.30165e-14
4.29647e-14
4.28146e-14
4.25677e-14
4.22261e-14
4.17919e-14
4.1268e-14
4.06571e-14
3.99628e-14
3.91887e-14
3.83386e-14
3.74169e-14
3.6428e-14
4.25718e-14
4.25599e-14
4.24508e-14
4.22462e-14
4.19479e-14
4.1558e-14
4.10792e-14
4.05145e-14
3.9867e-14
3.91404e-14
3.83386e-14
3.74658e-14
3.65264e-14
3.55252e-14
4.20664e-14
4.19972e-14
4.18337e-14
4.15775e-14
4.12309e-14
4.07964e-14
4.02768e-14
3.96754e-14
3.89956e-14
3.82415e-14
3.74169e-14
3.65264e-14
3.55746e-14
3.45664e-14
4.14544e-14
4.13306e-14
4.11154e-14
4.0811e-14
4.04197e-14
3.99443e-14
3.93881e-14
3.87545e-14
3.80471e-14
3.72702e-14
3.6428e-14
3.55252e-14
3.45664e-14
3.35568e-14
3.87432e-14
3.93996e-14
3.99522e-14
4.03999e-14
4.07417e-14
4.0977e-14
4.11057e-14
4.11278e-14
4.10436e-14
4.08539e-14
4.05596e-14
4.01621e-14
3.96628e-14
3.90636e-14
3.93996e-14
3.99898e-14
4.04758e-14
4.08568e-14
4.1132e-14
4.13011e-14
4.13642e-14
4.13215e-14
4.11737e-14
4.09218e-14
4.05669e-14
4.01106e-14
3.95549e-14
3.89017e-14
3.99522e-14
4.04758e-14
4.08951e-14
4.12095e-14
4.14185e-14
4.1522e-14
4.15203e-14
4.14139e-14
4.12039e-14
4.08913e-14
4.04777e-14
3.9965e-14
3.93553e-14
3.8651e-14
4.03999e-14
4.08568e-14
4.12095e-14
4.14576e-14
4.16009e-14
4.16396e-14
4.15742e-14
4.14056e-14
4.11349e-14
4.07636e-14
4.02936e-14
3.9727e-14
3.90662e-14
3.83138e-14
4.07417e-14
4.1132e-14
4.14185e-14
4.16009e-14
4.16794e-14
4.16544e-14
4.15267e-14
4.12975e-14
4.09681e-14
4.05404e-14
4.00165e-14
3.93987e-14
3.86898e-14
3.78928e-14
4.0977e-14
4.13011e-14
4.1522e-14
4.16396e-14
4.16544e-14
4.15671e-14
4.13788e-14
4.10908e-14
4.0705e-14
4.02234e-14
3.96483e-14
3.89825e-14
3.8229e-14
3.7391e-14
4.11057e-14
4.13642e-14
4.15203e-14
4.15742e-14
4.15267e-14
4.13788e-14
4.11318e-14
4.07874e-14
4.03476e-14
3.98148e-14
3.91918e-14
3.84813e-14
3.76868e-14
3.68118e-14
4.11278e-14
4.13215e-14
4.14139e-14
4.14056e-14
4.12975e-14
4.10908e-14
4.07874e-14
4.0389e-14
3.98981e-14
3.93174e-14
3.86496e-14
3.78982e-14
3.70666e-14
3.61586e-14
4.10436e-14
4.11737e-14
4.12039e-14
4.11349e-14
4.09681e-14
4.0705e-14
4.03476e-14
3.98981e-14
3.93592e-14
3.87338e-14
3.8025e-14
3.72365e-14
3.6372e-14
3.54354e-14
4.08539e-14
4.09218e-14
4.08913e-14
4.07636e-14
4.05404e-14
4.02234e-14
3.98148e-14
3.93174e-14
3.87338e-14
3.80673e-14
3.73215e-14
3.65e-14
3.56069e-14
3.46465e-14
4.05596e-14
4.05669e-14
4.04777e-14
4.02936e-14
4.00165e-14
3.96483e-14
3.91918e-14
3.86496e-14
3.8025e-14
3.73215e-14
3.65427e-14
3.56926e-14
3.47756e-14
3.37961e-14
4.01621e-14
4.01106e-14
3.9965e-14
3.9727e-14
3.93987e-14
3.89825e-14
3.84813e-14
3.78982e-14
3.72365e-14
3.65e-14
3.56926e-14
3.48186e-14
3.38825e-14
3.28889e-14
3.96628e-14
3.95549e-14
3.93553e-14
3.90662e-14
3.86898e-14
3.8229e-14
3.76868e-14
3.70666e-14
3.6372e-14
3.56069e-14
3.47756e-14
3.38825e-14
3.29323e-14
3.19298e-14
3.90636e-14
3.89017e-14
3.8651e-14
3.83138e-14
3.78928e-14
3.7391e-14
3.68118e-14
3.61586e-14
3.54354e-14
3.46465e-14
3.37961e-14
3.28889e-14
3.19298e-14
3.09236e-14
3.66985e-14
3.73059e-14
3.78128e-14
3.82182e-14
3.85219e-14
3.87236e-14
3.88233e-14
3.88216e-14
3.8719e-14
3.85166e-14
3.82155e-14
3.78173e-14
3.73237e-14
3.67366e-14
3.73059e-14
3.78481e-14
3.82895e-14
3.86294e-14
3.88676e-14
3.90043e-14
3.90396e-14
3.89742e-14
3.88091e-14
3.85455e-14
3.81847e-14
3.77287e-14
3.71793e-14
3.6539e-14
3.78128e-14
3.82895e-14
3.86652e-14
3.89397e-14
3.91129e-14
3.9185e-14
3.91566e-14
3.90287e-14
3.88023e-14
3.8479e-14
3.80604e-14
3.75486e-14
3.69459e-14
3.62548e-14
3.82182e-14
3.86294e-14
3.89397e-14
3.91491e-14
3.92577e-14
3.92662e-14
3.91752e-14
3.89859e-14
3.86998e-14
3.83186e-14
3.78443e-14
3.72791e-14
3.66256e-14
3.58866e-14
3.85219e-14
3.88676e-14
3.91129e-14
3.92577e-14
3.93027e-14
3.92484e-14
3.90961e-14
3.88471e-14
3.85032e-14
3.80662e-14
3.75384e-14
3.69225e-14
3.62211e-14
3.54374e-14
3.87236e-14
3.90043e-14
3.9185e-14
3.92662e-14
3.92484e-14
3.91329e-14
3.89208e-14
3.86139e-14
3.82141e-14
3.77237e-14
3.71452e-14
3.64813e-14
3.57353e-14
3.49103e-14
3.88233e-14
3.90396e-14
3.91566e-14
3.91752e-14
3.90961e-14
3.89208e-14
3.86508e-14
3.82881e-14
3.78349e-14
3.72937e-14
3.66672e-14
3.59587e-14
3.51713e-14
3.43087e-14
3.88216e-14
3.89742e-14
3.90287e-14
3.89859e-14
3.88471e-14
3.86139e-14
3.82881e-14
3.7872e-14
3.73679e-14
3.67788e-14
3.61076e-14
3.53577e-14
3.45327e-14
3.36363e-14
3.8719e-14
3.88091e-14
3.88023e-14
3.86998e-14
3.85032e-14
3.82141e-14
3.78349e-14
3.73679e-14
3.6816e-14
3.61821e-14
3.54696e-14
3.4682e-14
3.38232e-14
3.28973e-14
3.85166e-14
3.85455e-14
3.8479e-14
3.83186e-14
3.80662e-14
3.77237e-14
3.72937e-14
3.67788e-14
3.61821e-14
3.55068e-14
3.47566e-14
3.39353e-14
3.30469e-14
3.20957e-14
3.82155e-14
3.81847e-14
3.80604e-14
3.78443e-14
3.75384e-14
3.71452e-14
3.66672e-14
3.61076e-14
3.54696e-14
3.47566e-14
3.39727e-14
3.31217e-14
3.2208e-14
3.12361e-14
3.78173e-14
3.77287e-14
3.75486e-14
3.72791e-14
3.69225e-14
3.64813e-14
3.59587e-14
3.53577e-14
3.4682e-14
3.39353e-14
3.31217e-14
3.22455e-14
3.1311e-14
3.0323e-14
3.73237e-14
3.71793e-14
3.69459e-14
3.66256e-14
3.62211e-14
3.57353e-14
3.51713e-14
3.45327e-14
3.38232e-14
3.30469e-14
3.2208e-14
3.1311e-14
3.03605e-14
2.93614e-14
3.67366e-14
3.6539e-14
3.62548e-14
3.58866e-14
3.54374e-14
3.49103e-14
3.43087e-14
3.36363e-14
3.28973e-14
3.20957e-14
3.12361e-14
3.0323e-14
2.93614e-14
2.83562e-14
3.47092e-14
3.52693e-14
3.57319e-14
3.60967e-14
3.63635e-14
3.65326e-14
3.66044e-14
3.65796e-14
3.64592e-14
3.62443e-14
3.59365e-14
3.55374e-14
3.5049e-14
3.44735e-14
3.52693e-14
3.57654e-14
3.61637e-14
3.64641e-14
3.66668e-14
3.67721e-14
3.67807e-14
3.66934e-14
3.65116e-14
3.62366e-14
3.58701e-14
3.5414e-14
3.48706e-14
3.42423e-14
3.57319e-14
3.61637e-14
3.64977e-14
3.67339e-14
3.68727e-14
3.69147e-14
3.68608e-14
3.67121e-14
3.647e-14
3.61363e-14
3.57128e-14
3.52017e-14
3.46054e-14
3.39267e-14
3.60967e-14
3.64641e-14
3.67339e-14
3.69063e-14
3.69818e-14
3.69612e-14
3.68458e-14
3.66368e-14
3.63359e-14
3.59451e-14
3.54665e-14
3.49026e-14
3.42559e-14
3.35294e-14
3.63635e-14
3.66668e-14
3.68727e-14
3.69818e-14
3.69947e-14
3.69126e-14
3.67369e-14
3.64691e-14
3.61111e-14
3.56651e-14
3.51336e-14
3.45192e-14
3.38247e-14
3.30534e-14
3.65326e-14
3.67721e-14
3.69147e-14
3.69612e-14
3.69126e-14
3.67702e-14
3.65356e-14
3.62107e-14
3.57975e-14
3.52986e-14
3.47166e-14
3.40543e-14
3.3315e-14
3.2502e-14
3.66044e-14
3.67807e-14
3.68608e-14
3.68458e-14
3.67369e-14
3.65356e-14
3.62439e-14
3.58637e-14
3.53976e-14
3.48481e-14
3.42183e-14
3.35112e-14
3.27301e-14
3.18788e-14
3.65796e-14
3.66934e-14
3.67121e-14
3.66368e-14
3.64691e-14
3.62107e-14
3.58637e-14
3.54306e-14
3.49139e-14
3.43166e-14
3.36418e-14
3.2893e-14
3.20737e-14
3.11877e-14
3.64592e-14
3.65116e-14
3.647e-14
3.63359e-14
3.61111e-14
3.57975e-14
3.53976e-14
3.49139e-14
3.43494e-14
3.37072e-14
3.29907e-14
3.22035e-14
3.13494e-14
3.04326e-14
3.62443e-14
3.62366e-14
3.61363e-14
3.59451e-14
3.56651e-14
3.52986e-14
3.48481e-14
3.43166e-14
3.37072e-14
3.30232e-14
3.22683e-14
3.14464e-14
3.05615e-14
2.96178e-14
3.59365e-14
3.58701e-14
3.57128e-14
3.54665e-14
3.51336e-14
3.47166e-14
3.42183e-14
3.36418e-14
3.29907e-14
3.22683e-14
3.14787e-14
3.06259e-14
2.97142e-14
2.87479e-14
3.55374e-14
3.5414e-14
3.52017e-14
3.49026e-14
3.45192e-14
3.40543e-14
3.35112e-14
3.2893e-14
3.22035e-14
3.14464e-14
3.06259e-14
2.97463e-14
2.88119e-14
2.78275e-14
3.5049e-14
3.48706e-14
3.46054e-14
3.42559e-14
3.38247e-14
3.3315e-14
3.27301e-14
3.20737e-14
3.13494e-14
3.05615e-14
2.97142e-14
2.88119e-14
2.78594e-14
2.68613e-14
3.44735e-14
3.42423e-14
3.39267e-14
3.35294e-14
3.30534e-14
3.2502e-14
3.18788e-14
3.11877e-14
3.04326e-14
2.96178e-14
2.87479e-14
2.78275e-14
2.68613e-14
2.58544e-14
3.27753e-14
3.32898e-14
3.37098e-14
3.40353e-14
3.42666e-14
3.44042e-14
3.4449e-14
3.44018e-14
3.4264e-14
3.40371e-14
3.37226e-14
3.33225e-14
3.28389e-14
3.2274e-14
3.32898e-14
3.37415e-14
3.40985e-14
3.4361e-14
3.45295e-14
3.46046e-14
3.45874e-14
3.44791e-14
3.42811e-14
3.39951e-14
3.36229e-14
3.31667e-14
3.26288e-14
3.20117e-14
3.37098e-14
3.40985e-14
3.43925e-14
3.45921e-14
3.4698e-14
3.47112e-14
3.46327e-14
3.44641e-14
3.42069e-14
3.38631e-14
3.34347e-14
3.29242e-14
3.23339e-14
3.16667e-14
3.40353e-14
3.4361e-14
3.45921e-14
3.47292e-14
3.47731e-14
3.47249e-14
3.45861e-14
3.43582e-14
3.40432e-14
3.36431e-14
3.31603e-14
3.25973e-14
3.19569e-14
3.12421e-14
3.42666e-14
3.45295e-14
3.4698e-14
3.47731e-14
3.47556e-14
3.46471e-14
3.4449e-14
3.41632e-14
3.37919e-14
3.33373e-14
3.2802e-14
3.21888e-14
3.15007e-14
3.07408e-14
3.44042e-14
3.46046e-14
3.47112e-14
3.47249e-14
3.46471e-14
3.44792e-14
3.42232e-14
3.38811e-14
3.34552e-14
3.29481e-14
3.23625e-14
3.17016e-14
3.09684e-14
3.01663e-14
3.4449e-14
3.45874e-14
3.46327e-14
3.45861e-14
3.4449e-14
3.42232e-14
3.39108e-14
3.35141e-14
3.30357e-14
3.24783e-14
3.18449e-14
3.11388e-14
3.03634e-14
2.95223e-14
3.44018e-14
3.44791e-14
3.44641e-14
3.43582e-14
3.41632e-14
3.38811e-14
3.35141e-14
3.30649e-14
3.25361e-14
3.19309e-14
3.12524e-14
3.0504e-14
2.96895e-14
2.88126e-14
3.4264e-14
3.42811e-14
3.42069e-14
3.40432e-14
3.37919e-14
3.34552e-14
3.30357e-14
3.25361e-14
3.19595e-14
3.13091e-14
3.05884e-14
2.98009e-14
2.89506e-14
2.80414e-14
3.40371e-14
3.39951e-14
3.38631e-14
3.36431e-14
3.33373e-14
3.29481e-14
3.24783e-14
3.19309e-14
3.13091e-14
3.06164e-14
2.98565e-14
2.90333e-14
2.81507e-14
2.7213e-14
3.37226e-14
3.36229e-14
3.34347e-14
3.31603e-14
3.2802e-14
3.23625e-14
3.18449e-14
3.12524e-14
3.05884e-14
2.98565e-14
2.90608e-14
2.82052e-14
2.72941e-14
2.63317e-14
3.33225e-14
3.31667e-14
3.29242e-14
3.25973e-14
3.21888e-14
3.17016e-14
3.11388e-14
3.0504e-14
2.98009e-14
2.90333e-14
2.82052e-14
2.73211e-14
2.63853e-14
2.54024e-14
3.28389e-14
3.26288e-14
3.23339e-14
3.19569e-14
3.15007e-14
3.09684e-14
3.03634e-14
2.96895e-14
2.89506e-14
2.81507e-14
2.72941e-14
2.63853e-14
2.54289e-14
2.44296e-14
3.2274e-14
3.20117e-14
3.16667e-14
3.12421e-14
3.07408e-14
3.01663e-14
2.95223e-14
2.88126e-14
2.80414e-14
2.7213e-14
2.63317e-14
2.54024e-14
2.44296e-14
2.34184e-14
3.08969e-14
3.13674e-14
3.17463e-14
3.20339e-14
3.2231e-14
3.23383e-14
3.2357e-14
3.22882e-14
3.21336e-14
3.18948e-14
3.15738e-14
3.11725e-14
3.06932e-14
3.01384e-14
3.13674e-14
3.17766e-14
3.20939e-14
3.232e-14
3.24556e-14
3.25019e-14
3.24599e-14
3.23313e-14
3.21177e-14
3.1821e-14
3.14432e-14
3.09867e-14
3.04538e-14
2.98472e-14
3.17463e-14
3.20939e-14
3.23496e-14
3.25143e-14
3.25888e-14
3.25744e-14
3.24725e-14
3.22847e-14
3.20131e-14
3.16595e-14
3.12264e-14
3.07161e-14
3.01314e-14
2.9475e-14
3.20339e-14
3.232e-14
3.25143e-14
3.26178e-14
3.26316e-14
3.25571e-14
3.2396e-14
3.21502e-14
3.18216e-14
3.14126e-14
3.09257e-14
3.03634e-14
2.97288e-14
2.90247e-14
3.2231e-14
3.24556e-14
3.25888e-14
3.26316e-14
3.25853e-14
3.24517e-14
3.22324e-14
3.19296e-14
3.15455e-14
3.10826e-14
3.05436e-14
2.99314e-14
2.9249e-14
2.84996e-14
3.23383e-14
3.25019e-14
3.25744e-14
3.25571e-14
3.24517e-14
3.22598e-14
3.19835e-14
3.16252e-14
3.11871e-14
3.06722e-14
3.00831e-14
2.9423e-14
2.86952e-14
2.79031e-14
3.2357e-14
3.24599e-14
3.24725e-14
3.2396e-14
3.22324e-14
3.19835e-14
3.16517e-14
3.12394e-14
3.07492e-14
3.01841e-14
2.95472e-14
2.88417e-14
2.80711e-14
2.7239e-14
3.22882e-14
3.23313e-14
3.22847e-14
3.21502e-14
3.19296e-14
3.16252e-14
3.12394e-14
3.07749e-14
3.02346e-14
2.96216e-14
2.89392e-14
2.81909e-14
2.73803e-14
2.65112e-14
3.21336e-14
3.21177e-14
3.20131e-14
3.18216e-14
3.15455e-14
3.11871e-14
3.07492e-14
3.02346e-14
2.96464e-14
2.89879e-14
2.82627e-14
2.74743e-14
2.66267e-14
2.57238e-14
3.18948e-14
3.1821e-14
3.16595e-14
3.14126e-14
3.10826e-14
3.06722e-14
3.01841e-14
2.96216e-14
2.89879e-14
2.82866e-14
2.75213e-14
2.66959e-14
2.58144e-14
2.4881e-14
3.15738e-14
3.14432e-14
3.12264e-14
3.09257e-14
3.05436e-14
3.00831e-14
2.95472e-14
2.89392e-14
2.82627e-14
2.75213e-14
2.67189e-14
2.58596e-14
2.49477e-14
2.39874e-14
3.11725e-14
3.09867e-14
3.07161e-14
3.03634e-14
2.99314e-14
2.9423e-14
2.88417e-14
2.81909e-14
2.74743e-14
2.66959e-14
2.58596e-14
2.49699e-14
2.40311e-14
2.30476e-14
3.06932e-14
3.04538e-14
3.01314e-14
2.97288e-14
2.9249e-14
2.86952e-14
2.80711e-14
2.73803e-14
2.66267e-14
2.58144e-14
2.49477e-14
2.40311e-14
2.3069e-14
2.20662e-14
3.01384e-14
2.98472e-14
2.9475e-14
2.90247e-14
2.84996e-14
2.79031e-14
2.7239e-14
2.65112e-14
2.57238e-14
2.4881e-14
2.39874e-14
2.30476e-14
2.20662e-14
2.1048e-14
2.90738e-14
2.95021e-14
2.98415e-14
3.00927e-14
3.02568e-14
3.03349e-14
3.03284e-14
3.02388e-14
3.00679e-14
2.98177e-14
2.94901e-14
2.90874e-14
2.8612e-14
2.80666e-14
2.95021e-14
2.98705e-14
3.01499e-14
3.03411e-14
3.04453e-14
3.04638e-14
3.03981e-14
3.025e-14
3.00214e-14
2.97143e-14
2.9331e-14
2.88739e-14
2.83456e-14
2.77488e-14
2.98415e-14
3.01499e-14
3.03692e-14
3.05004e-14
3.0545e-14
3.05043e-14
3.038e-14
3.0174e-14
2.98884e-14
2.95255e-14
2.90877e-14
2.85775e-14
2.79978e-14
2.73514e-14
3.00927e-14
3.03411e-14
3.05004e-14
3.0572e-14
3.05573e-14
3.04579e-14
3.02757e-14
3.00127e-14
2.96712e-14
2.92536e-14
2.87626e-14
2.82009e-14
2.75714e-14
2.68772e-14
3.02568e-14
3.04453e-14
3.0545e-14
3.05573e-14
3.04839e-14
3.03265e-14
3.00872e-14
2.97682e-14
2.9372e-14
2.89011e-14
2.83585e-14
2.77469e-14
2.70696e-14
2.63298e-14
3.03349e-14
3.04638e-14
3.05043e-14
3.04579e-14
3.03265e-14
3.0112e-14
2.98167e-14
2.94429e-14
2.89934e-14
2.84708e-14
2.78782e-14
2.72188e-14
2.64957e-14
2.57124e-14
3.03284e-14
3.03981e-14
3.038e-14
3.02757e-14
3.00872e-14
2.98167e-14
2.94666e-14
2.90395e-14
2.85381e-14
2.79656e-14
2.73251e-14
2.66198e-14
2.58532e-14
2.5029e-14
3.02388e-14
3.025e-14
3.0174e-14
3.00127e-14
2.97682e-14
2.94429e-14
2.90395e-14
2.85606e-14
2.80093e-14
2.73888e-14
2.67023e-14
2.59535e-14
2.51459e-14
2.42833e-14
3.00679e-14
3.00214e-14
2.98884e-14
2.96712e-14
2.9372e-14
2.89934e-14
2.85381e-14
2.80093e-14
2.741e-14
2.67436e-14
2.60136e-14
2.52237e-14
2.43777e-14
2.34796e-14
2.98177e-14
2.97143e-14
2.95255e-14
2.92536e-14
2.89011e-14
2.84708e-14
2.79656e-14
2.73888e-14
2.67436e-14
2.60336e-14
2.52625e-14
2.44342e-14
2.35527e-14
2.26221e-14
2.94901e-14
2.9331e-14
2.90877e-14
2.87626e-14
2.83585e-14
2.78782e-14
2.73251e-14
2.67023e-14
2.60136e-14
2.52625e-14
2.4453e-14
2.35892e-14
2.26751e-14
2.17151e-14
2.90874e-14
2.88739e-14
2.85775e-14
2.82009e-14
2.77469e-14
2.72188e-14
2.66198e-14
2.59535e-14
2.52237e-14
2.44342e-14
2.35892e-14
2.26927e-14
2.17493e-14
2.07632e-14
2.8612e-14
2.83456e-14
2.79978e-14
2.75714e-14
2.70696e-14
2.64957e-14
2.58532e-14
2.51459e-14
2.43777e-14
2.35527e-14
2.26751e-14
2.17493e-14
2.07797e-14
1.97711e-14
2.80666e-14
2.77488e-14
2.73514e-14
2.68772e-14
2.63298e-14
2.57124e-14
2.5029e-14
2.42833e-14
2.34796e-14
2.26221e-14
2.17151e-14
2.07632e-14
1.97711e-14
1.87434e-14
2.73062e-14
2.76939e-14
2.79953e-14
2.82116e-14
2.8344e-14
2.8394e-14
2.83633e-14
2.82536e-14
2.8067e-14
2.78055e-14
2.74715e-14
2.70672e-14
2.65953e-14
2.60585e-14
2.76939e-14
2.80233e-14
2.82664e-14
2.84243e-14
2.84984e-14
2.84904e-14
2.8402e-14
2.82352e-14
2.79921e-14
2.7675e-14
2.72863e-14
2.68284e-14
2.63043e-14
2.57166e-14
2.79953e-14
2.82664e-14
2.8451e-14
2.85506e-14
2.85666e-14
2.85009e-14
2.83553e-14
2.81319e-14
2.7833e-14
2.74611e-14
2.70186e-14
2.65083e-14
2.59331e-14
2.52959e-14
2.82116e-14
2.84243e-14
2.85506e-14
2.8592e-14
2.85503e-14
2.84272e-14
2.8225e-14
2.79457e-14
2.75919e-14
2.71661e-14
2.66711e-14
2.61096e-14
2.54848e-14
2.47998e-14
2.8344e-14
2.84984e-14
2.85666e-14
2.85503e-14
2.84512e-14
2.82715e-14
2.80133e-14
2.7679e-14
2.72713e-14
2.67928e-14
2.62465e-14
2.56354e-14
2.49626e-14
2.42314e-14
2.8394e-14
2.84904e-14
2.85009e-14
2.84272e-14
2.82715e-14
2.80358e-14
2.77226e-14
2.73343e-14
2.68739e-14
2.63441e-14
2.57479e-14
2.50887e-14
2.43697e-14
2.35943e-14
2.83633e-14
2.8402e-14
2.83553e-14
2.8225e-14
2.80133e-14
2.77226e-14
2.73553e-14
2.69143e-14
2.64025e-14
2.58228e-14
2.51785e-14
2.4473e-14
2.37097e-14
2.28922e-14
2.82536e-14
2.82352e-14
2.81319e-14
2.79457e-14
2.7679e-14
2.73343e-14
2.69143e-14
2.6422e-14
2.58602e-14
2.52323e-14
2.45417e-14
2.37919e-14
2.29864e-14
2.21291e-14
2.8067e-14
2.79921e-14
2.7833e-14
2.75919e-14
2.72713e-14
2.68739e-14
2.64025e-14
2.58602e-14
2.52503e-14
2.4576e-14
2.38411e-14
2.3049e-14
2.22037e-14
2.1309e-14
2.78055e-14
2.7675e-14
2.74611e-14
2.71661e-14
2.67928e-14
2.63441e-14
2.58228e-14
2.52323e-14
2.4576e-14
2.38574e-14
2.30802e-14
2.22483e-14
2.13655e-14
2.0436e-14
2.74715e-14
2.72863e-14
2.70186e-14
2.66711e-14
2.62465e-14
2.57479e-14
2.51785e-14
2.45417e-14
2.38411e-14
2.30802e-14
2.22632e-14
2.13938e-14
2.04762e-14
1.95146e-14
2.70672e-14
2.68284e-14
2.65083e-14
2.61096e-14
2.56354e-14
2.50887e-14
2.4473e-14
2.37919e-14
2.3049e-14
2.22483e-14
2.13938e-14
2.04896e-14
1.95399e-14
1.85492e-14
2.65953e-14
2.63043e-14
2.59331e-14
2.54848e-14
2.49626e-14
2.43697e-14
2.37097e-14
2.29864e-14
2.22037e-14
2.13655e-14
2.04762e-14
1.95399e-14
1.85611e-14
1.75443e-14
2.60585e-14
2.57166e-14
2.52959e-14
2.47998e-14
2.42314e-14
2.35943e-14
2.28922e-14
2.21291e-14
2.1309e-14
2.0436e-14
1.95146e-14
1.85492e-14
1.75443e-14
1.65045e-14
2.55941e-14
2.59428e-14
2.62078e-14
2.63905e-14
2.64926e-14
2.65156e-14
2.64616e-14
2.63326e-14
2.61308e-14
2.58584e-14
2.55179e-14
2.5112e-14
2.46431e-14
2.41142e-14
2.59428e-14
2.62351e-14
2.64435e-14
2.65696e-14
2.6615e-14
2.65817e-14
2.64716e-14
2.62869e-14
2.60299e-14
2.57031e-14
2.5309e-14
2.48503e-14
2.43298e-14
2.37504e-14
2.62078e-14
2.64435e-14
2.65953e-14
2.66647e-14
2.66537e-14
2.65642e-14
2.63983e-14
2.61584e-14
2.58468e-14
2.54662e-14
2.50192e-14
2.45086e-14
2.39374e-14
2.33087e-14
2.63905e-14
2.65696e-14
2.66647e-14
2.66777e-14
2.66105e-14
2.64651e-14
2.62439e-14
2.59493e-14
2.55838e-14
2.51501e-14
2.46511e-14
2.40898e-14
2.34691e-14
2.27922e-14
2.64926e-14
2.6615e-14
2.66537e-14
2.66105e-14
2.64874e-14
2.62867e-14
2.60107e-14
2.56621e-14
2.52435e-14
2.47577e-14
2.42078e-14
2.35968e-14
2.29279e-14
2.22044e-14
2.65156e-14
2.65817e-14
2.65642e-14
2.64651e-14
2.62867e-14
2.60312e-14
2.57012e-14
2.52994e-14
2.48287e-14
2.42919e-14
2.36922e-14
2.30329e-14
2.23172e-14
2.15486e-14
2.64616e-14
2.64716e-14
2.63983e-14
2.62439e-14
2.60107e-14
2.57012e-14
2.53181e-14
2.48641e-14
2.43422e-14
2.37557e-14
2.31076e-14
2.24015e-14