<?xml version='1.0'?>
<!-- surface -->
<VTKFile type='PolyData' version='0.1' byte_order='LittleEndian' header_type='UInt64'>
  <PolyData>
    <Piece NumberOfPoints='100' NumberOfPolys='64'>
      <Points>
        <DataArray type='Float32' Name='Points' NumberOfComponents='3' format='ascii'>
0 0 -0.001 0 0 -0.0005 0.000353553 0 -0.000353553
0.0002875 0.0002875 -0.000353553 0 0.000353553 -0.000353553 -0.0002875 0.0002875 -0.000353553
-0.000353553 0 -0.000353553 -0.0002875 -0.0002875 -0.000353553 0 -0.000353553 -0.000353553
0.0002875 -0.0002875 -0.000353553 0 0 0 0 0 0
0.000707107 0 -0.000707107 0.0005 0.0005 -0.000707107 0 0.000707107 -0.000707107
-0.0005 0.0005 -0.000707107 -0.000707107 0 -0.000707107 -0.0005 -0.0005 -0.000707107
0 -0.000707107 -0.000707107 0.0005 -0.0005 -0.000707107 0 0 0
0 0 0 0.0005 0 0 0.000406586 0.000406586 0
0 0.0005 0 -0.000406586 0.000406586 0 -0.0005 0 0
-0.000406586 -0.000406586 0 0 -0.0005 0 0.000406586 -0.000406586 0
0 0 0 0 0 0 0.001 0 0
0.000707107 0.000707107 0 0 0.001 0 -0.000707107 0.000707107 0
-0.001 0 0 -0.000707107 -0.000707107 0 0 -0.001 0
0.000707107 -0.000707107 0 0 0 0 0 0 0.0050201
0.000858579 0 0.0050201 0.000698173 0.000698173 0.0050201 0 0.000858579 0.0050201
-0.000698173 0.000698173 0.0050201 -0.000858579 0 0.0050201 -0.000698173 -0.000698173 0.0050201
0 -0.000858579 0.0050201 0.000698173 -0.000698173 0.0050201 0 0 0
0 0 0 0.00171716 0 0.0050201 0.00121421 0.00121421 0.0050201
0 0.00171716 0.0050201 -0.00121421 0.00121421 0.0050201 -0.00171716 0 0.0050201
-0.00121421 -0.00121421 0.0050201 0 -0.00171716 0.0050201 0.00121421 -0.00121421 0.0050201
0 0 0 0 0 0.007 0.001 0 0.007
0.000813173 0.000813173 0.007 0 0.001 0.007 -0.000813173 0.000813173 0.007
-0.001 0 0.007 -0.000813173 -0.000813173 0.007 0 -0.001 0.007
0.000813173 -0.000813173 0.007 0 0 0 0 0 0
0.002 0 0.007 0.00141421 0.00141421 0.007 0 0.002 0.007
-0.00141421 0.00141421 0.007 -0.002 0 0.007 -0.00141421 -0.00141421 0.007
0 -0.002 0.007 0.00141421 -0.00141421 0.007 0 0 0
0 0 0 0.000353553 0 -0.001 0.0002875 0.0002875 -0.001
0 0.000353553 -0.001 -0.0002875 0.0002875 -0.001 -0.000353553 0 -0.001
-0.0002875 -0.0002875 -0.001 0 -0.000353553 -0.001 0.0002875 -0.0002875 -0.001
0 0 0 0 0 0 0.000176777 0 -0.000353553
0.00014375 0.00014375 -0.000353553 0 0.000176777 -0.000353553 -0.00014375 0.00014375 -0.000353553
-0.000176777 0 -0.000353553 -0.00014375 -0.00014375 -0.000353553 0 -0.000176777 -0.000353553
0.00014375 -0.00014375 -0.000353553
        </DataArray>
      </Points>
      <Polys>
        <DataArray type='Int32' Name='connectivity' format='ascii'>
99 9 2 92 89 82 12 19 98
8 9 99 88 89 19 18 97 7
8 98 87 88 18 17 96 6 7
97 86 87 17 16 95 5 6 96
85 86 16 15 94 4 5 95 84
85 15 14 93 3 4 94 83 84
14 13 92 2 3 93 82 83 13
12 99 92 1 98 89 88 0 82
97 98 1 96 87 86 0 88 95
96 1 94 85 84 0 86 93 94
1 92 83 82 0 84 1 4 3
2 1 6 5 4 1 8 7 6
1 2 9 8 12 13 33 32 13
14 34 33 14 15 35 34 15 16
36 35 16 17 37 36 17 18 38
37 18 19 39 38 19 12 32 39
32 33 53 52 33 34 54 53 34
35 55 54 35 36 56 55 36 37
57 56 37 38 58 57 38 39 59
58 39 32 52 59 61 62 63 64
61 64 65 66 61 66 67 68 61
68 69 62 52 53 73 72 62 72
73 63 53 54 74 73 63 73 74
64 54 55 75 74 64 74 75 65
55 56 76 75 65 75 76 66 56
57 77 76 66 76 77 67 57 58
78 77 67 77 78 68 58 59 79
78 68 78 79 69 59 52 72 79
69 79 72 62
        </DataArray>
        <DataArray type='Int32' Name='offsets' format='ascii'>
4 8 12 16 20 24 28 32 36
40 44 48 52 56 60 64 68 72
76 80 84 88 92 96 100 104 108
112 116 120 124 128 132 136 140 144
148 152 156 160 164 168 172 176 180
184 188 192 196 200 204 208 212 216
220 224 228 232 236 240 244 248 252
256
        </DataArray>
      </Polys>
      <CellData>
        <DataArray type='Int32' Name='block' format='ascii'>
0 0 1 1 2 2 3 3 4
4 5 5 6 6 7 7 8 8
9 9 10 10 11 11 12 13 14
15 16 17 18 19 20 21 22 23
28 29 30 31 32 33 34 35 36
37 38 39 40 40 41 41 42 42
43 43 44 44 45 45 46 46 47
47
        </DataArray>
        <DataArray type='Int32' Name='face' format='ascii'>
4 5 3 4 3 4 3 4 3
4 3 4 3 4 2 3 2 3
1 2 1 2 0 1 5 4 4
3 3 2 2 2 2 2 2 1
3 2 2 2 2 2 2 1 4
3 3 2 2 3 1 2 1 2
1 2 1 2 1 2 1 2 0
1
        </DataArray>
        <DataArray type='Int32' Name='patch' format='ascii'>
1 1 1 1 1 1 1 1 1
1 1 1 1 1 1 1 1 1
1 1 1 1 1 1 1 1 1
1 1 1 1 1 1 1 1 1
1 1 1 1 1 1 1 1 1
1 1 1 1 1 1 1 1 1
1 1 1 1 1 1 1 1 1
1
        </DataArray>
      </CellData>
    </Piece>
  </PolyData>
</VTKFile>
