<?xml version='1.0'?>
<!-- case='tube' region='region0' time='0' index='0' -->
<VTKFile type='UnstructuredGrid' version='0.1' byte_order='LittleEndian' header_type='UInt64'>
  <UnstructuredGrid>
    <Piece NumberOfPoints='100' NumberOfCells='48'>
      <Points>
        <DataArray type='Float32' Name='Points' NumberOfComponents='3' format='ascii'>
0 0 -0.001 0 0 -0.0005 0.000353553 0 -0.000353553
0.0002875 0.0002875 -0.000353553 0 0.000353553 -0.000353553 -0.0002875 0.0002875 -0.000353553
-0.000353553 0 -0.000353553 -0.0002875 -0.0002875 -0.000353553 0 -0.000353553 -0.000353553
0.0002875 -0.0002875 -0.000353553 0 0 0 0 0 0
0.000707107 0 -0.000707107 0.0005 0.0005 -0.000707107 0 0.000707107 -0.000707107
-0.0005 0.0005 -0.000707107 -0.000707107 0 -0.000707107 -0.0005 -0.0005 -0.000707107
0 -0.000707107 -0.000707107 0.0005 -0.0005 -0.000707107 0 0 0
0 0 0 0.0005 0 0 0.000406586 0.000406586 0
0 0.0005 0 -0.000406586 0.000406586 0 -0.0005 0 0
-0.000406586 -0.000406586 0 0 -0.0005 0 0.000406586 -0.000406586 0
0 0 0 0 0 0 0.001 0 0
0.000707107 0.000707107 0 0 0.001 0 -0.000707107 0.000707107 0
-0.001 0 0 -0.000707107 -0.000707107 0 0 -0.001 0
0.000707107 -0.000707107 0 0 0 0 0 0 0.0050201
0.000858579 0 0.0050201 0.000698173 0.000698173 0.0050201 0 0.000858579 0.0050201
-0.000698173 0.000698173 0.0050201 -0.000858579 0 0.0050201 -0.000698173 -0.000698173 0.0050201
0 -0.000858579 0.0050201 0.000698173 -0.000698173 0.0050201 0 0 0
0 0 0 0.00171716 0 0.0050201 0.00121421 0.00121421 0.0050201
0 0.00171716 0.0050201 -0.00121421 0.00121421 0.0050201 -0.00171716 0 0.0050201
-0.00121421 -0.00121421 0.0050201 0 -0.00171716 0.0050201 0.00121421 -0.00121421 0.0050201
0 0 0 0 0 0.007 0.001 0 0.007
0.000813173 0.000813173 0.007 0 0.001 0.007 -0.000813173 0.000813173 0.007
-0.001 0 0.007 -0.000813173 -0.000813173 0.007 0 -0.001 0.007
0.000813173 -0.000813173 0.007 0 0 0 0 0 0
0.002 0 0.007 0.00141421 0.00141421 0.007 0 0.002 0.007
-0.00141421 0.00141421 0.007 -0.002 0 0.007 -0.00141421 -0.00141421 0.007
0 -0.002 0.007 0.00141421 -0.00141421 0.007 0 0 0
0 0 0 0.000353553 0 -0.001 0.0002875 0.0002875 -0.001
0 0.000353553 -0.001 -0.0002875 0.0002875 -0.001 -0.000353553 0 -0.001
-0.0002875 -0.0002875 -0.001 0 -0.000353553 -0.001 0.0002875 -0.0002875 -0.001
0 0 0 0 0 0 0.000176777 0 -0.000353553
0.00014375 0.00014375 -0.000353553 0 0.000176777 -0.000353553 -0.00014375 0.00014375 -0.000353553
-0.000176777 0 -0.000353553 -0.00014375 -0.00014375 -0.000353553 0 -0.000176777 -0.000353553
0.00014375 -0.00014375 -0.000353553
        </DataArray>
      </Points>
      <Cells>
        <DataArray type='Int32' Name='connectivity' format='ascii'>
99 9 19 89 92 2 12 82 98
8 18 88 99 9 19 89 97 7
17 87 98 8 18 88 96 6 16
86 97 7 17 87 95 5 15 85
96 6 16 86 94 4 14 84 95
5 15 85 93 3 13 83 94 4
14 84 92 82 83 93 2 12 13
3 98 88 0 1 99 89 82 92
96 86 0 1 97 87 88 98 94
84 0 1 95 85 86 96 93 92
1 94 83 82 0 84 1 4 24
21 2 3 23 22 1 6 26 21
4 5 25 24 1 8 28 21 6
7 27 26 8 28 29 9 1 21
22 2 3 13 33 23 2 12 32
22 4 14 34 24 3 13 33 23
5 15 35 25 4 14 34 24 6
16 36 26 5 15 35 25 7 17
37 27 6 16 36 26 8 18 38
28 7 17 37 27 9 19 39 29
8 18 38 28 29 22 32 39 9
2 12 19 21 24 44 41 22 23
43 42 21 26 46 41 24 25 45
44 21 28 48 41 26 27 47 46
28 48 49 29 21 41 42 22 23
33 53 43 22 32 52 42 24 34
54 44 23 33 53 43 25 35 55
45 24 34 54 44 26 36 56 46
25 35 55 45 27 37 57 47 26
36 56 46 28 38 58 48 27 37
57 47 29 39 59 49 28 38 58
48 49 42 52 59 29 22 32 39
41 44 64 61 42 43 63 62 41
46 66 61 44 45 65 64 41 48
68 61 46 47 67 66 48 68 69
49 41 61 62 42 43 53 73 63
42 52 72 62 44 54 74 64 43
53 73 63 45 55 75 65 44 54
74 64 46 56 76 66 45 55 75
65 47 57 77 67 46 56 76 66
48 58 78 68 47 57 77 67 49
59 79 69 48 58 78 68 59 79
72 52 49 69 62 42
        </DataArray>
        <DataArray type='Int32' Name='offsets' format='ascii'>
8 16 24 32 40 48 56 64 72
80 88 96 104 112 120 128 136 144
152 160 168 176 184 192 200 208 216
224 232 240 248 256 264 272 280 288
296 304 312 320 328 336 344 352 360
368 376 384
        </DataArray>
        <DataArray type='UInt8' Name='types' format='ascii'>
12 12 12 12 12 12 12 12 12
12 12 12 12 12 12 12 12 12
12 12 12 12 12 12 12 12 12
12 12 12 12 12 12 12 12 12
12 12 12 12 12 12 12 12 12
12 12 12
        </DataArray>
      </Cells>
      <CellData>
        <DataArray type='Int32' Name='cellID' format='ascii'>
0 1 2 3 4 5 6 7 8
9 10 11 12 13 14 15 16 17
18 19 20 21 22 23 24 25 26
27 28 29 30 31 32 33 34 35
36 37 38 39 40 41 42 43 44
45 46 47
        </DataArray>
        <DataArray type='Float32' Name='local-direction0' NumberOfComponents='3' format='ascii'>
0.036562 0.0909898 -1.37703e-19 0.0909898 0.036562 1.37703e-19 0.0909898 -0.036562 0
0.036562 -0.0909898 0 -0.036562 -0.0909898 1.37703e-19 -0.0909898 -0.036562 -1.37703e-19
-0.0909898 0.036562 0 -0.036562 0.0909898 0 -0.0747527 0.00803715 -0.00956615
0.00803715 0.0747527 -0.00956615 0.0747527 -0.00803715 -0.00956615 -0.00803715 -0.0747527 -0.00956615
0.115766 0.0108972 -0.0196464 -0.0108972 0.115766 -0.0196464 -0.115766 -0.0108972 -0.0196464
0.0108972 -0.115766 -0.0196464 0.10598 0.0395329 -0.0438983 0.0395329 0.10598 -0.0438983
-0.0395329 0.10598 -0.0438983 -0.10598 0.0395329 -0.0438983 -0.10598 -0.0395329 -0.0438983
-0.0395329 -0.10598 -0.0438983 0.0395329 -0.10598 -0.0438983 0.10598 -0.0395329 -0.0438983
0.188944 0.0194686 -0.00605271 -0.0194686 0.188944 -0.00605271 -0.188944 -0.0194686 -0.00605271
0.0194686 -0.188944 -0.00605271 0.167436 0.0580786 -0.0195532 0.0580786 0.167436 -0.0195532
-0.0580786 0.167436 -0.0195532 -0.167436 0.0580786 -0.0195532 -0.167436 -0.0580786 -0.0195532
-0.0580786 -0.167436 -0.0195532 0.0580786 -0.167436 -0.0195532 0.167436 -0.0580786 -0.0195532
0.253104 0.0260795 -0.008108 -0.0260795 0.253104 -0.008108 -0.253104 -0.0260795 -0.008108
0.0260795 -0.253104 -0.008108 0.224292 0.0778001 -0.0261928 0.0778001 0.224292 -0.0261928
-0.0778001 0.224292 -0.0261928 -0.224292 0.0778001 -0.0261928 -0.224292 -0.0778001 -0.0261928
-0.0778001 -0.224292 -0.0261928 0.0778001 -0.224292 -0.0261928 0.224292 -0.0778001 -0.0261928
        </DataArray>
        <DataArray type='Float32' Name='local-direction1' NumberOfComponents='3' format='ascii'>
0.0738675 -0.021294 0.0435012 0.021294 -0.0738675 0.0435012 -0.021294 -0.0738675 0.0435012
-0.0738675 -0.021294 0.0435012 -0.0738675 0.021294 0.0435012 -0.021294 0.0738675 0.0435012
0.021294 0.0738675 0.0435012 0.0738675 0.021294 0.0435012 -0.00803715 0.0747527 -0.00956615
0.0747527 0.00803715 -0.00956615 0.00803715 -0.0747527 -0.00956615 -0.0747527 -0.00803715 -0.00956615
0.0108972 0.115766 -0.0196464 -0.115766 0.0108972 -0.0196464 -0.0108972 -0.115766 -0.0196464
0.115766 -0.0108972 -0.0196464 -0.055719 0.145335 0 -0.145335 0.055719 0
-0.145335 -0.055719 0 -0.055719 -0.145335 0 0.055719 -0.145335 0
0.145335 -0.055719 0 0.145335 0.055719 0 0.055719 0.145335 0
0.0194686 0.188944 -0.00605271 -0.188944 0.0194686 -0.00605271 -0.0194686 -0.188944 -0.00605271
0.188944 -0.0194686 -0.00605271 -0.0863881 0.230119 0 -0.230119 0.0863881 0
-0.230119 -0.0863881 0 -0.0863881 -0.230119 0 0.0863881 -0.230119 0
0.230119 -0.0863881 0 0.230119 0.0863881 0 0.0863881 0.230119 0
0.0260795 0.253104 -0.008108 -0.253104 0.0260795 -0.008108 -0.0260795 -0.253104 -0.008108
0.253104 -0.0260795 -0.008108 -0.115723 0.308259 0 -0.308259 0.115723 0
-0.308259 -0.115723 0 -0.115723 -0.308259 0 0.115723 -0.308259 0
0.308259 -0.115723 0 0.308259 0.115723 0 0.115723 0.308259 0
        </DataArray>
        <DataArray type='Float32' Name='local-direction2' NumberOfComponents='3' format='ascii'>
0.0919268 -0.0318866 -0.130781 0.0318866 -0.0919268 -0.130781 -0.0318866 -0.0919268 -0.130781
-0.0919268 -0.0318866 -0.130781 -0.0919268 0.0318866 -0.130781 -0.0318866 0.0919268 -0.130781
0.0318866 0.0919268 -0.130781 0.0919268 0.0318866 -0.130781 0.0185966 -0.0185966 -0.182542
-0.0185966 -0.0185966 -0.182542 -0.0185966 0.0185966 -0.182542 0.0185966 0.0185966 -0.182542
-0.0102378 -0.0102378 0.120592 0.0102378 -0.0102378 0.120592 0.0102378 0.0102378 0.120592
-0.0102378 0.0102378 0.120592 0.0605582 0.0210058 0.164372 0.0210058 0.0605582 0.164372
-0.0210058 0.0605582 0.164372 -0.0605582 0.0210058 0.164372 -0.0605582 -0.0210058 0.164372
-0.0210058 -0.0605582 0.164372 0.0210058 -0.0605582 0.164372 0.0605582 -0.0210058 0.164372
0 0 1.5075 0 0 1.5075 0 0 1.5075
0 0 1.5075 0 0 1.51422 0 0 1.51422
0 0 1.51422 0 0 1.51422 0 0 1.51422
0 0 1.51422 0 0 1.51422 0 0 1.51422
0 0 0.59455 0 0 0.59455 0 0 0.59455
0 0 0.59455 0 0 0.597199 0 0 0.597199
0 0 0.597199 0 0 0.597199 0 0 0.597199
0 0 0.597199 0 0 0.597199 0 0 0.597199
        </DataArray>
      </CellData>
    </Piece>
  </UnstructuredGrid>
</VTKFile>
